V -t * -v 1.0a5 -a 0
A -t * -n 1 -p 0 -o 0x7fffffff -c 30 -a 1
A -t * -h 1 -m 1073741823 -s 0
c -t * -i 4 -n violet
c -t * -i 0 -n Blue
c -t * -i 5 -n violet
c -t * -i 1 -n darkgreen
c -t * -i 6 -n Yellow
c -t * -i 2 -n violet
c -t * -i 3 -n darkgreen
n -t * -a 4 -s 4 -S UP -v circle -c black -i black
n -t * -a 0 -s 0 -S UP -v circle -c black -i black
n -t * -a 5 -s 5 -S UP -v circle -c black -i black
n -t * -a 1 -s 1 -S UP -v circle -c black -i black
n -t * -a 6 -s 6 -S UP -v circle -c black -i black
n -t * -a 2 -s 2 -S UP -v circle -c black -i black
n -t * -a 3 -s 3 -S UP -v circle -c black -i black
l -t * -s 0 -d 1 -S UP -r 512000 -D 0.0050000000000000001 -c black
l -t * -s 1 -d 2 -S UP -r 512000 -D 0.0050000000000000001 -c black
l -t * -s 2 -d 3 -S UP -r 512000 -D 0.0050000000000000001 -c black
l -t * -s 3 -d 4 -S UP -r 512000 -D 0.0050000000000000001 -c black
l -t * -s 4 -d 5 -S UP -r 512000 -D 0.0050000000000000001 -c black
l -t * -s 5 -d 6 -S UP -r 512000 -D 0.0050000000000000001 -c black
l -t * -s 6 -d 0 -S UP -r 512000 -D 0.0050000000000000001 -c black
+ -t 0.000169788487334637 -s 0 -d 1 -p rtProtoDV -e 7 -c 0 -i 0 -a 0 -x {0.2 1.2 -1 ------- null}
- -t 0.000169788487334637 -s 0 -d 1 -p rtProtoDV -e 7 -c 0 -i 0 -a 0 -x {0.2 1.2 -1 ------- null}
h -t 0.000169788487334637 -s 0 -d 1 -p rtProtoDV -e 7 -c 0 -i 0 -a 0 -x {0.2 1.2 -1 ------- null}
+ -t 0.000169788487334637 -s 0 -d 6 -p rtProtoDV -e 7 -c 0 -i 1 -a 0 -x {0.2 6.2 -1 ------- null}
- -t 0.000169788487334637 -s 0 -d 6 -p rtProtoDV -e 7 -c 0 -i 1 -a 0 -x {0.2 6.2 -1 ------- null}
h -t 0.000169788487334637 -s 0 -d 6 -p rtProtoDV -e 7 -c 0 -i 1 -a 0 -x {0.2 6.2 -1 ------- null}
r -t 0.00527916348733464 -s 0 -d 1 -p rtProtoDV -e 7 -c 0 -i 0 -a 0 -x {0.2 1.2 -1 ------- null}
+ -t 0.00527916348733464 -s 1 -d 0 -p rtProtoDV -e 7 -c 0 -i 2 -a 0 -x {1.2 0.2 -1 ------- null}
- -t 0.00527916348733464 -s 1 -d 0 -p rtProtoDV -e 7 -c 0 -i 2 -a 0 -x {1.2 0.2 -1 ------- null}
h -t 0.00527916348733464 -s 1 -d 0 -p rtProtoDV -e 7 -c 0 -i 2 -a 0 -x {1.2 0.2 -1 ------- null}
+ -t 0.00527916348733464 -s 1 -d 2 -p rtProtoDV -e 7 -c 0 -i 3 -a 0 -x {1.2 2.2 -1 ------- null}
- -t 0.00527916348733464 -s 1 -d 2 -p rtProtoDV -e 7 -c 0 -i 3 -a 0 -x {1.2 2.2 -1 ------- null}
h -t 0.00527916348733464 -s 1 -d 2 -p rtProtoDV -e 7 -c 0 -i 3 -a 0 -x {1.2 2.2 -1 ------- null}
r -t 0.00527916348733464 -s 0 -d 6 -p rtProtoDV -e 7 -c 0 -i 1 -a 0 -x {0.2 6.2 -1 ------- null}
+ -t 0.00527916348733464 -s 6 -d 0 -p rtProtoDV -e 7 -c 0 -i 4 -a 0 -x {6.2 0.2 -1 ------- null}
- -t 0.00527916348733464 -s 6 -d 0 -p rtProtoDV -e 7 -c 0 -i 4 -a 0 -x {6.2 0.2 -1 ------- null}
h -t 0.00527916348733464 -s 6 -d 0 -p rtProtoDV -e 7 -c 0 -i 4 -a 0 -x {6.2 0.2 -1 ------- null}
+ -t 0.00527916348733464 -s 6 -d 5 -p rtProtoDV -e 7 -c 0 -i 5 -a 0 -x {6.2 5.1 -1 ------- null}
- -t 0.00527916348733464 -s 6 -d 5 -p rtProtoDV -e 7 -c 0 -i 5 -a 0 -x {6.2 5.1 -1 ------- null}
h -t 0.00527916348733464 -s 6 -d 5 -p rtProtoDV -e 7 -c 0 -i 5 -a 0 -x {6.2 5.1 -1 ------- null}
+ -t 0.00710233021858257 -s 2 -d 1 -p rtProtoDV -e 7 -c 0 -i 6 -a 0 -x {2.2 1.2 -1 ------- null}
- -t 0.00710233021858257 -s 2 -d 1 -p rtProtoDV -e 7 -c 0 -i 6 -a 0 -x {2.2 1.2 -1 ------- null}
h -t 0.00710233021858257 -s 2 -d 1 -p rtProtoDV -e 7 -c 0 -i 6 -a 0 -x {2.2 1.2 -1 ------- null}
+ -t 0.00710233021858257 -s 2 -d 3 -p rtProtoDV -e 7 -c 0 -i 7 -a 0 -x {2.2 3.2 -1 ------- null}
- -t 0.00710233021858257 -s 2 -d 3 -p rtProtoDV -e 7 -c 0 -i 7 -a 0 -x {2.2 3.2 -1 ------- null}
h -t 0.00710233021858257 -s 2 -d 3 -p rtProtoDV -e 7 -c 0 -i 7 -a 0 -x {2.2 3.2 -1 ------- null}
r -t 0.0103885384873346 -s 1 -d 0 -p rtProtoDV -e 7 -c 0 -i 2 -a 0 -x {1.2 0.2 -1 ------- null}
+ -t 0.0103885384873346 -s 0 -d 1 -p rtProtoDV -e 7 -c 0 -i 8 -a 0 -x {0.2 1.2 -1 ------- null}
- -t 0.0103885384873346 -s 0 -d 1 -p rtProtoDV -e 7 -c 0 -i 8 -a 0 -x {0.2 1.2 -1 ------- null}
h -t 0.0103885384873346 -s 0 -d 1 -p rtProtoDV -e 7 -c 0 -i 8 -a 0 -x {0.2 1.2 -1 ------- null}
+ -t 0.0103885384873346 -s 0 -d 6 -p rtProtoDV -e 7 -c 0 -i 9 -a 0 -x {0.2 6.2 -1 ------- null}
- -t 0.0103885384873346 -s 0 -d 6 -p rtProtoDV -e 7 -c 0 -i 9 -a 0 -x {0.2 6.2 -1 ------- null}
h -t 0.0103885384873346 -s 0 -d 6 -p rtProtoDV -e 7 -c 0 -i 9 -a 0 -x {0.2 6.2 -1 ------- null}
r -t 0.0103885384873346 -s 1 -d 2 -p rtProtoDV -e 7 -c 0 -i 3 -a 0 -x {1.2 2.2 -1 ------- null}
+ -t 0.0103885384873346 -s 2 -d 1 -p rtProtoDV -e 7 -c 0 -i 10 -a 0 -x {2.2 1.2 -1 ------- null}
- -t 0.0103885384873346 -s 2 -d 1 -p rtProtoDV -e 7 -c 0 -i 10 -a 0 -x {2.2 1.2 -1 ------- null}
h -t 0.0103885384873346 -s 2 -d 1 -p rtProtoDV -e 7 -c 0 -i 10 -a 0 -x {2.2 1.2 -1 ------- null}
+ -t 0.0103885384873346 -s 2 -d 3 -p rtProtoDV -e 7 -c 0 -i 11 -a 0 -x {2.2 3.2 -1 ------- null}
- -t 0.0103885384873346 -s 2 -d 3 -p rtProtoDV -e 7 -c 0 -i 11 -a 0 -x {2.2 3.2 -1 ------- null}
h -t 0.0103885384873346 -s 2 -d 3 -p rtProtoDV -e 7 -c 0 -i 11 -a 0 -x {2.2 3.2 -1 ------- null}
r -t 0.0103885384873346 -s 6 -d 0 -p rtProtoDV -e 7 -c 0 -i 4 -a 0 -x {6.2 0.2 -1 ------- null}
+ -t 0.0103885384873346 -s 0 -d 1 -p rtProtoDV -e 7 -c 0 -i 12 -a 0 -x {0.2 1.2 -1 ------- null}
+ -t 0.0103885384873346 -s 0 -d 6 -p rtProtoDV -e 7 -c 0 -i 13 -a 0 -x {0.2 6.2 -1 ------- null}
r -t 0.0103885384873346 -s 6 -d 5 -p rtProtoDV -e 7 -c 0 -i 5 -a 0 -x {6.2 5.1 -1 ------- null}
+ -t 0.0103885384873346 -s 5 -d 4 -p rtProtoDV -e 7 -c 0 -i 14 -a 0 -x {5.1 4.2 -1 ------- null}
- -t 0.0103885384873346 -s 5 -d 4 -p rtProtoDV -e 7 -c 0 -i 14 -a 0 -x {5.1 4.2 -1 ------- null}
h -t 0.0103885384873346 -s 5 -d 4 -p rtProtoDV -e 7 -c 0 -i 14 -a 0 -x {5.1 4.2 -1 ------- null}
+ -t 0.0103885384873346 -s 5 -d 6 -p rtProtoDV -e 7 -c 0 -i 15 -a 0 -x {5.1 6.2 -1 ------- null}
- -t 0.0103885384873346 -s 5 -d 6 -p rtProtoDV -e 7 -c 0 -i 15 -a 0 -x {5.1 6.2 -1 ------- null}
h -t 0.0103885384873346 -s 5 -d 6 -p rtProtoDV -e 7 -c 0 -i 15 -a 0 -x {5.1 6.2 -1 ------- null}
- -t 0.0104979134873346 -s 0 -d 1 -p rtProtoDV -e 7 -c 0 -i 12 -a 0 -x {0.2 1.2 -1 ------- null}
h -t 0.0104979134873346 -s 0 -d 1 -p rtProtoDV -e 7 -c 0 -i 12 -a 0 -x {0.2 1.2 -1 ------- null}
- -t 0.0104979134873346 -s 0 -d 6 -p rtProtoDV -e 7 -c 0 -i 13 -a 0 -x {0.2 6.2 -1 ------- null}
h -t 0.0104979134873346 -s 0 -d 6 -p rtProtoDV -e 7 -c 0 -i 13 -a 0 -x {0.2 6.2 -1 ------- null}
r -t 0.0122117052185826 -s 2 -d 1 -p rtProtoDV -e 7 -c 0 -i 6 -a 0 -x {2.2 1.2 -1 ------- null}
+ -t 0.0122117052185826 -s 1 -d 0 -p rtProtoDV -e 7 -c 0 -i 16 -a 0 -x {1.2 0.2 -1 ------- null}
- -t 0.0122117052185826 -s 1 -d 0 -p rtProtoDV -e 7 -c 0 -i 16 -a 0 -x {1.2 0.2 -1 ------- null}
h -t 0.0122117052185826 -s 1 -d 0 -p rtProtoDV -e 7 -c 0 -i 16 -a 0 -x {1.2 0.2 -1 ------- null}
+ -t 0.0122117052185826 -s 1 -d 2 -p rtProtoDV -e 7 -c 0 -i 17 -a 0 -x {1.2 2.2 -1 ------- null}
- -t 0.0122117052185826 -s 1 -d 2 -p rtProtoDV -e 7 -c 0 -i 17 -a 0 -x {1.2 2.2 -1 ------- null}
h -t 0.0122117052185826 -s 1 -d 2 -p rtProtoDV -e 7 -c 0 -i 17 -a 0 -x {1.2 2.2 -1 ------- null}
r -t 0.0122117052185826 -s 2 -d 3 -p rtProtoDV -e 7 -c 0 -i 7 -a 0 -x {2.2 3.2 -1 ------- null}
+ -t 0.0122117052185826 -s 3 -d 2 -p rtProtoDV -e 7 -c 0 -i 18 -a 0 -x {3.2 2.2 -1 ------- null}
- -t 0.0122117052185826 -s 3 -d 2 -p rtProtoDV -e 7 -c 0 -i 18 -a 0 -x {3.2 2.2 -1 ------- null}
h -t 0.0122117052185826 -s 3 -d 2 -p rtProtoDV -e 7 -c 0 -i 18 -a 0 -x {3.2 2.2 -1 ------- null}
+ -t 0.0122117052185826 -s 3 -d 4 -p rtProtoDV -e 7 -c 0 -i 19 -a 0 -x {3.2 4.2 -1 ------- null}
- -t 0.0122117052185826 -s 3 -d 4 -p rtProtoDV -e 7 -c 0 -i 19 -a 0 -x {3.2 4.2 -1 ------- null}
h -t 0.0122117052185826 -s 3 -d 4 -p rtProtoDV -e 7 -c 0 -i 19 -a 0 -x {3.2 4.2 -1 ------- null}
r -t 0.0154979134873346 -s 0 -d 1 -p rtProtoDV -e 7 -c 0 -i 8 -a 0 -x {0.2 1.2 -1 ------- null}
r -t 0.0154979134873346 -s 0 -d 6 -p rtProtoDV -e 7 -c 0 -i 9 -a 0 -x {0.2 6.2 -1 ------- null}
+ -t 0.0154979134873346 -s 6 -d 0 -p rtProtoDV -e 7 -c 0 -i 20 -a 0 -x {6.2 0.2 -1 ------- null}
- -t 0.0154979134873346 -s 6 -d 0 -p rtProtoDV -e 7 -c 0 -i 20 -a 0 -x {6.2 0.2 -1 ------- null}
h -t 0.0154979134873346 -s 6 -d 0 -p rtProtoDV -e 7 -c 0 -i 20 -a 0 -x {6.2 0.2 -1 ------- null}
+ -t 0.0154979134873346 -s 6 -d 5 -p rtProtoDV -e 7 -c 0 -i 21 -a 0 -x {6.2 5.1 -1 ------- null}
- -t 0.0154979134873346 -s 6 -d 5 -p rtProtoDV -e 7 -c 0 -i 21 -a 0 -x {6.2 5.1 -1 ------- null}
h -t 0.0154979134873346 -s 6 -d 5 -p rtProtoDV -e 7 -c 0 -i 21 -a 0 -x {6.2 5.1 -1 ------- null}
r -t 0.0154979134873346 -s 2 -d 1 -p rtProtoDV -e 7 -c 0 -i 10 -a 0 -x {2.2 1.2 -1 ------- null}
r -t 0.0154979134873346 -s 2 -d 3 -p rtProtoDV -e 7 -c 0 -i 11 -a 0 -x {2.2 3.2 -1 ------- null}
+ -t 0.0154979134873346 -s 3 -d 2 -p rtProtoDV -e 7 -c 0 -i 22 -a 0 -x {3.2 2.2 -1 ------- null}
- -t 0.0154979134873346 -s 3 -d 2 -p rtProtoDV -e 7 -c 0 -i 22 -a 0 -x {3.2 2.2 -1 ------- null}
h -t 0.0154979134873346 -s 3 -d 2 -p rtProtoDV -e 7 -c 0 -i 22 -a 0 -x {3.2 2.2 -1 ------- null}
+ -t 0.0154979134873346 -s 3 -d 4 -p rtProtoDV -e 7 -c 0 -i 23 -a 0 -x {3.2 4.2 -1 ------- null}
- -t 0.0154979134873346 -s 3 -d 4 -p rtProtoDV -e 7 -c 0 -i 23 -a 0 -x {3.2 4.2 -1 ------- null}
h -t 0.0154979134873346 -s 3 -d 4 -p rtProtoDV -e 7 -c 0 -i 23 -a 0 -x {3.2 4.2 -1 ------- null}
r -t 0.0154979134873346 -s 5 -d 4 -p rtProtoDV -e 7 -c 0 -i 14 -a 0 -x {5.1 4.2 -1 ------- null}
+ -t 0.0154979134873346 -s 4 -d 3 -p rtProtoDV -e 7 -c 0 -i 24 -a 0 -x {4.2 3.2 -1 ------- null}
- -t 0.0154979134873346 -s 4 -d 3 -p rtProtoDV -e 7 -c 0 -i 24 -a 0 -x {4.2 3.2 -1 ------- null}
h -t 0.0154979134873346 -s 4 -d 3 -p rtProtoDV -e 7 -c 0 -i 24 -a 0 -x {4.2 3.2 -1 ------- null}
+ -t 0.0154979134873346 -s 4 -d 5 -p rtProtoDV -e 7 -c 0 -i 25 -a 0 -x {4.2 5.1 -1 ------- null}
- -t 0.0154979134873346 -s 4 -d 5 -p rtProtoDV -e 7 -c 0 -i 25 -a 0 -x {4.2 5.1 -1 ------- null}
h -t 0.0154979134873346 -s 4 -d 5 -p rtProtoDV -e 7 -c 0 -i 25 -a 0 -x {4.2 5.1 -1 ------- null}
r -t 0.0154979134873346 -s 5 -d 6 -p rtProtoDV -e 7 -c 0 -i 15 -a 0 -x {5.1 6.2 -1 ------- null}
+ -t 0.0154979134873346 -s 6 -d 0 -p rtProtoDV -e 7 -c 0 -i 26 -a 0 -x {6.2 0.2 -1 ------- null}
+ -t 0.0154979134873346 -s 6 -d 5 -p rtProtoDV -e 7 -c 0 -i 27 -a 0 -x {6.2 5.1 -1 ------- null}
- -t 0.0156072884873346 -s 6 -d 0 -p rtProtoDV -e 7 -c 0 -i 26 -a 0 -x {6.2 0.2 -1 ------- null}
h -t 0.0156072884873346 -s 6 -d 0 -p rtProtoDV -e 7 -c 0 -i 26 -a 0 -x {6.2 0.2 -1 ------- null}
- -t 0.0156072884873346 -s 6 -d 5 -p rtProtoDV -e 7 -c 0 -i 27 -a 0 -x {6.2 5.1 -1 ------- null}
h -t 0.0156072884873346 -s 6 -d 5 -p rtProtoDV -e 7 -c 0 -i 27 -a 0 -x {6.2 5.1 -1 ------- null}
r -t 0.0156072884873346 -s 0 -d 1 -p rtProtoDV -e 7 -c 0 -i 12 -a 0 -x {0.2 1.2 -1 ------- null}
+ -t 0.0156072884873346 -s 1 -d 0 -p rtProtoDV -e 7 -c 0 -i 28 -a 0 -x {1.2 0.2 -1 ------- null}
- -t 0.0156072884873346 -s 1 -d 0 -p rtProtoDV -e 7 -c 0 -i 28 -a 0 -x {1.2 0.2 -1 ------- null}
h -t 0.0156072884873346 -s 1 -d 0 -p rtProtoDV -e 7 -c 0 -i 28 -a 0 -x {1.2 0.2 -1 ------- null}
+ -t 0.0156072884873346 -s 1 -d 2 -p rtProtoDV -e 7 -c 0 -i 29 -a 0 -x {1.2 2.2 -1 ------- null}
- -t 0.0156072884873346 -s 1 -d 2 -p rtProtoDV -e 7 -c 0 -i 29 -a 0 -x {1.2 2.2 -1 ------- null}
h -t 0.0156072884873346 -s 1 -d 2 -p rtProtoDV -e 7 -c 0 -i 29 -a 0 -x {1.2 2.2 -1 ------- null}
r -t 0.0156072884873346 -s 0 -d 6 -p rtProtoDV -e 7 -c 0 -i 13 -a 0 -x {0.2 6.2 -1 ------- null}
r -t 0.0173210802185826 -s 1 -d 0 -p rtProtoDV -e 7 -c 0 -i 16 -a 0 -x {1.2 0.2 -1 ------- null}
+ -t 0.0173210802185826 -s 0 -d 1 -p rtProtoDV -e 7 -c 0 -i 30 -a 0 -x {0.2 1.2 -1 ------- null}
- -t 0.0173210802185826 -s 0 -d 1 -p rtProtoDV -e 7 -c 0 -i 30 -a 0 -x {0.2 1.2 -1 ------- null}
h -t 0.0173210802185826 -s 0 -d 1 -p rtProtoDV -e 7 -c 0 -i 30 -a 0 -x {0.2 1.2 -1 ------- null}
+ -t 0.0173210802185826 -s 0 -d 6 -p rtProtoDV -e 7 -c 0 -i 31 -a 0 -x {0.2 6.2 -1 ------- null}
- -t 0.0173210802185826 -s 0 -d 6 -p rtProtoDV -e 7 -c 0 -i 31 -a 0 -x {0.2 6.2 -1 ------- null}
h -t 0.0173210802185826 -s 0 -d 6 -p rtProtoDV -e 7 -c 0 -i 31 -a 0 -x {0.2 6.2 -1 ------- null}
r -t 0.0173210802185826 -s 1 -d 2 -p rtProtoDV -e 7 -c 0 -i 17 -a 0 -x {1.2 2.2 -1 ------- null}
r -t 0.0173210802185826 -s 3 -d 2 -p rtProtoDV -e 7 -c 0 -i 18 -a 0 -x {3.2 2.2 -1 ------- null}
+ -t 0.0173210802185826 -s 2 -d 1 -p rtProtoDV -e 7 -c 0 -i 32 -a 0 -x {2.2 1.2 -1 ------- null}
- -t 0.0173210802185826 -s 2 -d 1 -p rtProtoDV -e 7 -c 0 -i 32 -a 0 -x {2.2 1.2 -1 ------- null}
h -t 0.0173210802185826 -s 2 -d 1 -p rtProtoDV -e 7 -c 0 -i 32 -a 0 -x {2.2 1.2 -1 ------- null}
+ -t 0.0173210802185826 -s 2 -d 3 -p rtProtoDV -e 7 -c 0 -i 33 -a 0 -x {2.2 3.2 -1 ------- null}
- -t 0.0173210802185826 -s 2 -d 3 -p rtProtoDV -e 7 -c 0 -i 33 -a 0 -x {2.2 3.2 -1 ------- null}
h -t 0.0173210802185826 -s 2 -d 3 -p rtProtoDV -e 7 -c 0 -i 33 -a 0 -x {2.2 3.2 -1 ------- null}
r -t 0.0173210802185826 -s 3 -d 4 -p rtProtoDV -e 7 -c 0 -i 19 -a 0 -x {3.2 4.2 -1 ------- null}
+ -t 0.0173210802185826 -s 4 -d 3 -p rtProtoDV -e 7 -c 0 -i 34 -a 0 -x {4.2 3.2 -1 ------- null}
- -t 0.0173210802185826 -s 4 -d 3 -p rtProtoDV -e 7 -c 0 -i 34 -a 0 -x {4.2 3.2 -1 ------- null}
h -t 0.0173210802185826 -s 4 -d 3 -p rtProtoDV -e 7 -c 0 -i 34 -a 0 -x {4.2 3.2 -1 ------- null}
+ -t 0.0173210802185826 -s 4 -d 5 -p rtProtoDV -e 7 -c 0 -i 35 -a 0 -x {4.2 5.1 -1 ------- null}
- -t 0.0173210802185826 -s 4 -d 5 -p rtProtoDV -e 7 -c 0 -i 35 -a 0 -x {4.2 5.1 -1 ------- null}
h -t 0.0173210802185826 -s 4 -d 5 -p rtProtoDV -e 7 -c 0 -i 35 -a 0 -x {4.2 5.1 -1 ------- null}
r -t 0.0206072884873346 -s 6 -d 0 -p rtProtoDV -e 7 -c 0 -i 20 -a 0 -x {6.2 0.2 -1 ------- null}
r -t 0.0206072884873346 -s 6 -d 5 -p rtProtoDV -e 7 -c 0 -i 21 -a 0 -x {6.2 5.1 -1 ------- null}
+ -t 0.0206072884873346 -s 5 -d 4 -p rtProtoDV -e 7 -c 0 -i 36 -a 0 -x {5.1 4.2 -1 ------- null}
- -t 0.0206072884873346 -s 5 -d 4 -p rtProtoDV -e 7 -c 0 -i 36 -a 0 -x {5.1 4.2 -1 ------- null}
h -t 0.0206072884873346 -s 5 -d 4 -p rtProtoDV -e 7 -c 0 -i 36 -a 0 -x {5.1 4.2 -1 ------- null}
+ -t 0.0206072884873346 -s 5 -d 6 -p rtProtoDV -e 7 -c 0 -i 37 -a 0 -x {5.1 6.2 -1 ------- null}
- -t 0.0206072884873346 -s 5 -d 6 -p rtProtoDV -e 7 -c 0 -i 37 -a 0 -x {5.1 6.2 -1 ------- null}
h -t 0.0206072884873346 -s 5 -d 6 -p rtProtoDV -e 7 -c 0 -i 37 -a 0 -x {5.1 6.2 -1 ------- null}
r -t 0.0206072884873346 -s 3 -d 2 -p rtProtoDV -e 7 -c 0 -i 22 -a 0 -x {3.2 2.2 -1 ------- null}
r -t 0.0206072884873346 -s 3 -d 4 -p rtProtoDV -e 7 -c 0 -i 23 -a 0 -x {3.2 4.2 -1 ------- null}
r -t 0.0206072884873346 -s 4 -d 3 -p rtProtoDV -e 7 -c 0 -i 24 -a 0 -x {4.2 3.2 -1 ------- null}
+ -t 0.0206072884873346 -s 3 -d 2 -p rtProtoDV -e 7 -c 0 -i 38 -a 0 -x {3.2 2.2 -1 ------- null}
- -t 0.0206072884873346 -s 3 -d 2 -p rtProtoDV -e 7 -c 0 -i 38 -a 0 -x {3.2 2.2 -1 ------- null}
h -t 0.0206072884873346 -s 3 -d 2 -p rtProtoDV -e 7 -c 0 -i 38 -a 0 -x {3.2 2.2 -1 ------- null}
+ -t 0.0206072884873346 -s 3 -d 4 -p rtProtoDV -e 7 -c 0 -i 39 -a 0 -x {3.2 4.2 -1 ------- null}
- -t 0.0206072884873346 -s 3 -d 4 -p rtProtoDV -e 7 -c 0 -i 39 -a 0 -x {3.2 4.2 -1 ------- null}
h -t 0.0206072884873346 -s 3 -d 4 -p rtProtoDV -e 7 -c 0 -i 39 -a 0 -x {3.2 4.2 -1 ------- null}
r -t 0.0206072884873346 -s 4 -d 5 -p rtProtoDV -e 7 -c 0 -i 25 -a 0 -x {4.2 5.1 -1 ------- null}
+ -t 0.0206072884873346 -s 5 -d 4 -p rtProtoDV -e 7 -c 0 -i 40 -a 0 -x {5.1 4.2 -1 ------- null}
+ -t 0.0206072884873346 -s 5 -d 6 -p rtProtoDV -e 7 -c 0 -i 41 -a 0 -x {5.1 6.2 -1 ------- null}
- -t 0.0207166634873346 -s 5 -d 4 -p rtProtoDV -e 7 -c 0 -i 40 -a 0 -x {5.1 4.2 -1 ------- null}
h -t 0.0207166634873346 -s 5 -d 4 -p rtProtoDV -e 7 -c 0 -i 40 -a 0 -x {5.1 4.2 -1 ------- null}
- -t 0.0207166634873346 -s 5 -d 6 -p rtProtoDV -e 7 -c 0 -i 41 -a 0 -x {5.1 6.2 -1 ------- null}
h -t 0.0207166634873346 -s 5 -d 6 -p rtProtoDV -e 7 -c 0 -i 41 -a 0 -x {5.1 6.2 -1 ------- null}
r -t 0.0207166634873346 -s 6 -d 0 -p rtProtoDV -e 7 -c 0 -i 26 -a 0 -x {6.2 0.2 -1 ------- null}
+ -t 0.0207166634873346 -s 0 -d 1 -p rtProtoDV -e 7 -c 0 -i 42 -a 0 -x {0.2 1.2 -1 ------- null}
- -t 0.0207166634873346 -s 0 -d 1 -p rtProtoDV -e 7 -c 0 -i 42 -a 0 -x {0.2 1.2 -1 ------- null}
h -t 0.0207166634873346 -s 0 -d 1 -p rtProtoDV -e 7 -c 0 -i 42 -a 0 -x {0.2 1.2 -1 ------- null}
+ -t 0.0207166634873346 -s 0 -d 6 -p rtProtoDV -e 7 -c 0 -i 43 -a 0 -x {0.2 6.2 -1 ------- null}
- -t 0.0207166634873346 -s 0 -d 6 -p rtProtoDV -e 7 -c 0 -i 43 -a 0 -x {0.2 6.2 -1 ------- null}
h -t 0.0207166634873346 -s 0 -d 6 -p rtProtoDV -e 7 -c 0 -i 43 -a 0 -x {0.2 6.2 -1 ------- null}
r -t 0.0207166634873346 -s 6 -d 5 -p rtProtoDV -e 7 -c 0 -i 27 -a 0 -x {6.2 5.1 -1 ------- null}
r -t 0.0207166634873346 -s 1 -d 0 -p rtProtoDV -e 7 -c 0 -i 28 -a 0 -x {1.2 0.2 -1 ------- null}
r -t 0.0207166634873346 -s 1 -d 2 -p rtProtoDV -e 7 -c 0 -i 29 -a 0 -x {1.2 2.2 -1 ------- null}
+ -t 0.0207166634873346 -s 2 -d 1 -p rtProtoDV -e 7 -c 0 -i 44 -a 0 -x {2.2 1.2 -1 ------- null}
- -t 0.0207166634873346 -s 2 -d 1 -p rtProtoDV -e 7 -c 0 -i 44 -a 0 -x {2.2 1.2 -1 ------- null}
h -t 0.0207166634873346 -s 2 -d 1 -p rtProtoDV -e 7 -c 0 -i 44 -a 0 -x {2.2 1.2 -1 ------- null}
+ -t 0.0207166634873346 -s 2 -d 3 -p rtProtoDV -e 7 -c 0 -i 45 -a 0 -x {2.2 3.2 -1 ------- null}
- -t 0.0207166634873346 -s 2 -d 3 -p rtProtoDV -e 7 -c 0 -i 45 -a 0 -x {2.2 3.2 -1 ------- null}
h -t 0.0207166634873346 -s 2 -d 3 -p rtProtoDV -e 7 -c 0 -i 45 -a 0 -x {2.2 3.2 -1 ------- null}
r -t 0.0224304552185826 -s 0 -d 1 -p rtProtoDV -e 7 -c 0 -i 30 -a 0 -x {0.2 1.2 -1 ------- null}
r -t 0.0224304552185826 -s 0 -d 6 -p rtProtoDV -e 7 -c 0 -i 31 -a 0 -x {0.2 6.2 -1 ------- null}
+ -t 0.0224304552185826 -s 6 -d 0 -p rtProtoDV -e 7 -c 0 -i 46 -a 0 -x {6.2 0.2 -1 ------- null}
- -t 0.0224304552185826 -s 6 -d 0 -p rtProtoDV -e 7 -c 0 -i 46 -a 0 -x {6.2 0.2 -1 ------- null}
h -t 0.0224304552185826 -s 6 -d 0 -p rtProtoDV -e 7 -c 0 -i 46 -a 0 -x {6.2 0.2 -1 ------- null}
+ -t 0.0224304552185826 -s 6 -d 5 -p rtProtoDV -e 7 -c 0 -i 47 -a 0 -x {6.2 5.1 -1 ------- null}
- -t 0.0224304552185826 -s 6 -d 5 -p rtProtoDV -e 7 -c 0 -i 47 -a 0 -x {6.2 5.1 -1 ------- null}
h -t 0.0224304552185826 -s 6 -d 5 -p rtProtoDV -e 7 -c 0 -i 47 -a 0 -x {6.2 5.1 -1 ------- null}
r -t 0.0224304552185826 -s 2 -d 1 -p rtProtoDV -e 7 -c 0 -i 32 -a 0 -x {2.2 1.2 -1 ------- null}
+ -t 0.0224304552185826 -s 1 -d 0 -p rtProtoDV -e 7 -c 0 -i 48 -a 0 -x {1.2 0.2 -1 ------- null}
- -t 0.0224304552185826 -s 1 -d 0 -p rtProtoDV -e 7 -c 0 -i 48 -a 0 -x {1.2 0.2 -1 ------- null}
h -t 0.0224304552185826 -s 1 -d 0 -p rtProtoDV -e 7 -c 0 -i 48 -a 0 -x {1.2 0.2 -1 ------- null}
+ -t 0.0224304552185826 -s 1 -d 2 -p rtProtoDV -e 7 -c 0 -i 49 -a 0 -x {1.2 2.2 -1 ------- null}
- -t 0.0224304552185826 -s 1 -d 2 -p rtProtoDV -e 7 -c 0 -i 49 -a 0 -x {1.2 2.2 -1 ------- null}
h -t 0.0224304552185826 -s 1 -d 2 -p rtProtoDV -e 7 -c 0 -i 49 -a 0 -x {1.2 2.2 -1 ------- null}
r -t 0.0224304552185826 -s 2 -d 3 -p rtProtoDV -e 7 -c 0 -i 33 -a 0 -x {2.2 3.2 -1 ------- null}
r -t 0.0224304552185826 -s 4 -d 3 -p rtProtoDV -e 7 -c 0 -i 34 -a 0 -x {4.2 3.2 -1 ------- null}
r -t 0.0224304552185826 -s 4 -d 5 -p rtProtoDV -e 7 -c 0 -i 35 -a 0 -x {4.2 5.1 -1 ------- null}
+ -t 0.0224304552185826 -s 5 -d 4 -p rtProtoDV -e 7 -c 0 -i 50 -a 0 -x {5.1 4.2 -1 ------- null}
- -t 0.0224304552185826 -s 5 -d 4 -p rtProtoDV -e 7 -c 0 -i 50 -a 0 -x {5.1 4.2 -1 ------- null}
h -t 0.0224304552185826 -s 5 -d 4 -p rtProtoDV -e 7 -c 0 -i 50 -a 0 -x {5.1 4.2 -1 ------- null}
+ -t 0.0224304552185826 -s 5 -d 6 -p rtProtoDV -e 7 -c 0 -i 51 -a 0 -x {5.1 6.2 -1 ------- null}
- -t 0.0224304552185826 -s 5 -d 6 -p rtProtoDV -e 7 -c 0 -i 51 -a 0 -x {5.1 6.2 -1 ------- null}
h -t 0.0224304552185826 -s 5 -d 6 -p rtProtoDV -e 7 -c 0 -i 51 -a 0 -x {5.1 6.2 -1 ------- null}
r -t 0.0257166634873346 -s 5 -d 4 -p rtProtoDV -e 7 -c 0 -i 36 -a 0 -x {5.1 4.2 -1 ------- null}
r -t 0.0257166634873346 -s 5 -d 6 -p rtProtoDV -e 7 -c 0 -i 37 -a 0 -x {5.1 6.2 -1 ------- null}
r -t 0.0257166634873346 -s 3 -d 2 -p rtProtoDV -e 7 -c 0 -i 38 -a 0 -x {3.2 2.2 -1 ------- null}
+ -t 0.0257166634873346 -s 2 -d 1 -p rtProtoDV -e 7 -c 0 -i 52 -a 0 -x {2.2 1.2 -1 ------- null}
- -t 0.0257166634873346 -s 2 -d 1 -p rtProtoDV -e 7 -c 0 -i 52 -a 0 -x {2.2 1.2 -1 ------- null}
h -t 0.0257166634873346 -s 2 -d 1 -p rtProtoDV -e 7 -c 0 -i 52 -a 0 -x {2.2 1.2 -1 ------- null}
+ -t 0.0257166634873346 -s 2 -d 3 -p rtProtoDV -e 7 -c 0 -i 53 -a 0 -x {2.2 3.2 -1 ------- null}
- -t 0.0257166634873346 -s 2 -d 3 -p rtProtoDV -e 7 -c 0 -i 53 -a 0 -x {2.2 3.2 -1 ------- null}
h -t 0.0257166634873346 -s 2 -d 3 -p rtProtoDV -e 7 -c 0 -i 53 -a 0 -x {2.2 3.2 -1 ------- null}
r -t 0.0257166634873346 -s 3 -d 4 -p rtProtoDV -e 7 -c 0 -i 39 -a 0 -x {3.2 4.2 -1 ------- null}
r -t 0.0258260384873346 -s 5 -d 4 -p rtProtoDV -e 7 -c 0 -i 40 -a 0 -x {5.1 4.2 -1 ------- null}
r -t 0.0258260384873346 -s 5 -d 6 -p rtProtoDV -e 7 -c 0 -i 41 -a 0 -x {5.1 6.2 -1 ------- null}
+ -t 0.0258260384873346 -s 6 -d 0 -p rtProtoDV -e 7 -c 0 -i 54 -a 0 -x {6.2 0.2 -1 ------- null}
- -t 0.0258260384873346 -s 6 -d 0 -p rtProtoDV -e 7 -c 0 -i 54 -a 0 -x {6.2 0.2 -1 ------- null}
h -t 0.0258260384873346 -s 6 -d 0 -p rtProtoDV -e 7 -c 0 -i 54 -a 0 -x {6.2 0.2 -1 ------- null}
+ -t 0.0258260384873346 -s 6 -d 5 -p rtProtoDV -e 7 -c 0 -i 55 -a 0 -x {6.2 5.1 -1 ------- null}
- -t 0.0258260384873346 -s 6 -d 5 -p rtProtoDV -e 7 -c 0 -i 55 -a 0 -x {6.2 5.1 -1 ------- null}
h -t 0.0258260384873346 -s 6 -d 5 -p rtProtoDV -e 7 -c 0 -i 55 -a 0 -x {6.2 5.1 -1 ------- null}
r -t 0.0258260384873346 -s 0 -d 1 -p rtProtoDV -e 7 -c 0 -i 42 -a 0 -x {0.2 1.2 -1 ------- null}
r -t 0.0258260384873346 -s 0 -d 6 -p rtProtoDV -e 7 -c 0 -i 43 -a 0 -x {0.2 6.2 -1 ------- null}
r -t 0.0258260384873346 -s 2 -d 1 -p rtProtoDV -e 7 -c 0 -i 44 -a 0 -x {2.2 1.2 -1 ------- null}
r -t 0.0258260384873346 -s 2 -d 3 -p rtProtoDV -e 7 -c 0 -i 45 -a 0 -x {2.2 3.2 -1 ------- null}
r -t 0.0275398302185826 -s 6 -d 0 -p rtProtoDV -e 7 -c 0 -i 46 -a 0 -x {6.2 0.2 -1 ------- null}
r -t 0.0275398302185826 -s 6 -d 5 -p rtProtoDV -e 7 -c 0 -i 47 -a 0 -x {6.2 5.1 -1 ------- null}
r -t 0.0275398302185826 -s 1 -d 0 -p rtProtoDV -e 7 -c 0 -i 48 -a 0 -x {1.2 0.2 -1 ------- null}
r -t 0.0275398302185826 -s 1 -d 2 -p rtProtoDV -e 7 -c 0 -i 49 -a 0 -x {1.2 2.2 -1 ------- null}
r -t 0.0275398302185826 -s 5 -d 4 -p rtProtoDV -e 7 -c 0 -i 50 -a 0 -x {5.1 4.2 -1 ------- null}
r -t 0.0275398302185826 -s 5 -d 6 -p rtProtoDV -e 7 -c 0 -i 51 -a 0 -x {5.1 6.2 -1 ------- null}
r -t 0.0308260384873346 -s 2 -d 1 -p rtProtoDV -e 7 -c 0 -i 52 -a 0 -x {2.2 1.2 -1 ------- null}
r -t 0.0308260384873346 -s 2 -d 3 -p rtProtoDV -e 7 -c 0 -i 53 -a 0 -x {2.2 3.2 -1 ------- null}
r -t 0.0309354134873346 -s 6 -d 0 -p rtProtoDV -e 7 -c 0 -i 54 -a 0 -x {6.2 0.2 -1 ------- null}
r -t 0.0309354134873346 -s 6 -d 5 -p rtProtoDV -e 7 -c 0 -i 55 -a 0 -x {6.2 5.1 -1 ------- null}
+ -t 0.04406133552271 -s 3 -d 2 -p rtProtoDV -e 7 -c 0 -i 56 -a 0 -x {3.2 2.2 -1 ------- null}
- -t 0.04406133552271 -s 3 -d 2 -p rtProtoDV -e 7 -c 0 -i 56 -a 0 -x {3.2 2.2 -1 ------- null}
h -t 0.04406133552271 -s 3 -d 2 -p rtProtoDV -e 7 -c 0 -i 56 -a 0 -x {3.2 2.2 -1 ------- null}
+ -t 0.04406133552271 -s 3 -d 4 -p rtProtoDV -e 7 -c 0 -i 57 -a 0 -x {3.2 4.2 -1 ------- null}
- -t 0.04406133552271 -s 3 -d 4 -p rtProtoDV -e 7 -c 0 -i 57 -a 0 -x {3.2 4.2 -1 ------- null}
h -t 0.04406133552271 -s 3 -d 4 -p rtProtoDV -e 7 -c 0 -i 57 -a 0 -x {3.2 4.2 -1 ------- null}
r -t 0.04917071052271 -s 3 -d 2 -p rtProtoDV -e 7 -c 0 -i 56 -a 0 -x {3.2 2.2 -1 ------- null}
r -t 0.04917071052271 -s 3 -d 4 -p rtProtoDV -e 7 -c 0 -i 57 -a 0 -x {3.2 4.2 -1 ------- null}
+ -t 0.1 -s 0 -d 6 -p tcp -e 40 -c 0 -i 58 -a 0 -x {0.0 4.0 0 ------- null}
- -t 0.1 -s 0 -d 6 -p tcp -e 40 -c 0 -i 58 -a 0 -x {0.0 4.0 0 ------- null}
h -t 0.1 -s 0 -d 6 -p tcp -e 40 -c 0 -i 58 -a 0 -x {0.0 4.0 -1 ------- null}
+ -t 0.1 -s 2 -d 1 -p tcp -e 40 -c 1 -i 59 -a 1 -x {2.0 6.0 0 ------- null}
- -t 0.1 -s 2 -d 1 -p tcp -e 40 -c 1 -i 59 -a 1 -x {2.0 6.0 0 ------- null}
h -t 0.1 -s 2 -d 1 -p tcp -e 40 -c 1 -i 59 -a 1 -x {2.0 6.0 -1 ------- null}
+ -t 0.1 -s 1 -d 2 -p tcp -e 40 -c 2 -i 60 -a 2 -x {1.0 3.0 0 ------- null}
- -t 0.1 -s 1 -d 2 -p tcp -e 40 -c 2 -i 60 -a 2 -x {1.0 3.0 0 ------- null}
h -t 0.1 -s 1 -d 2 -p tcp -e 40 -c 2 -i 60 -a 2 -x {1.0 3.0 -1 ------- null}
r -t 0.105625 -s 0 -d 6 -p tcp -e 40 -c 0 -i 58 -a 0 -x {0.0 4.0 0 ------- null}
+ -t 0.105625 -s 6 -d 5 -p tcp -e 40 -c 0 -i 58 -a 0 -x {0.0 4.0 0 ------- null}
- -t 0.105625 -s 6 -d 5 -p tcp -e 40 -c 0 -i 58 -a 0 -x {0.0 4.0 0 ------- null}
h -t 0.105625 -s 6 -d 5 -p tcp -e 40 -c 0 -i 58 -a 0 -x {0.0 4.0 -1 ------- null}
r -t 0.105625 -s 2 -d 1 -p tcp -e 40 -c 1 -i 59 -a 1 -x {2.0 6.0 0 ------- null}
+ -t 0.105625 -s 1 -d 0 -p tcp -e 40 -c 1 -i 59 -a 1 -x {2.0 6.0 0 ------- null}
- -t 0.105625 -s 1 -d 0 -p tcp -e 40 -c 1 -i 59 -a 1 -x {2.0 6.0 0 ------- null}
h -t 0.105625 -s 1 -d 0 -p tcp -e 40 -c 1 -i 59 -a 1 -x {2.0 6.0 -1 ------- null}
r -t 0.105625 -s 1 -d 2 -p tcp -e 40 -c 2 -i 60 -a 2 -x {1.0 3.0 0 ------- null}
+ -t 0.105625 -s 2 -d 3 -p tcp -e 40 -c 2 -i 60 -a 2 -x {1.0 3.0 0 ------- null}
- -t 0.105625 -s 2 -d 3 -p tcp -e 40 -c 2 -i 60 -a 2 -x {1.0 3.0 0 ------- null}
h -t 0.105625 -s 2 -d 3 -p tcp -e 40 -c 2 -i 60 -a 2 -x {1.0 3.0 -1 ------- null}
r -t 0.11125 -s 6 -d 5 -p tcp -e 40 -c 0 -i 58 -a 0 -x {0.0 4.0 0 ------- null}
+ -t 0.11125 -s 5 -d 4 -p tcp -e 40 -c 0 -i 58 -a 0 -x {0.0 4.0 0 ------- null}
- -t 0.11125 -s 5 -d 4 -p tcp -e 40 -c 0 -i 58 -a 0 -x {0.0 4.0 0 ------- null}
h -t 0.11125 -s 5 -d 4 -p tcp -e 40 -c 0 -i 58 -a 0 -x {0.0 4.0 -1 ------- null}
r -t 0.11125 -s 1 -d 0 -p tcp -e 40 -c 1 -i 59 -a 1 -x {2.0 6.0 0 ------- null}
+ -t 0.11125 -s 0 -d 6 -p tcp -e 40 -c 1 -i 59 -a 1 -x {2.0 6.0 0 ------- null}
- -t 0.11125 -s 0 -d 6 -p tcp -e 40 -c 1 -i 59 -a 1 -x {2.0 6.0 0 ------- null}
h -t 0.11125 -s 0 -d 6 -p tcp -e 40 -c 1 -i 59 -a 1 -x {2.0 6.0 -1 ------- null}
r -t 0.11125 -s 2 -d 3 -p tcp -e 40 -c 2 -i 60 -a 2 -x {1.0 3.0 0 ------- null}
+ -t 0.11125 -s 3 -d 2 -p ack -e 40 -c 2 -i 61 -a 2 -x {3.0 1.0 0 ------- null}
- -t 0.11125 -s 3 -d 2 -p ack -e 40 -c 2 -i 61 -a 2 -x {3.0 1.0 0 ------- null}
h -t 0.11125 -s 3 -d 2 -p ack -e 40 -c 2 -i 61 -a 2 -x {3.0 1.0 -1 ------- null}
r -t 0.116875 -s 5 -d 4 -p tcp -e 40 -c 0 -i 58 -a 0 -x {0.0 4.0 0 ------- null}
+ -t 0.116875 -s 4 -d 5 -p ack -e 40 -c 0 -i 62 -a 0 -x {4.0 0.0 0 ------- null}
- -t 0.116875 -s 4 -d 5 -p ack -e 40 -c 0 -i 62 -a 0 -x {4.0 0.0 0 ------- null}
h -t 0.116875 -s 4 -d 5 -p ack -e 40 -c 0 -i 62 -a 0 -x {4.0 0.0 -1 ------- null}
r -t 0.116875 -s 0 -d 6 -p tcp -e 40 -c 1 -i 59 -a 1 -x {2.0 6.0 0 ------- null}
+ -t 0.116875 -s 6 -d 0 -p ack -e 40 -c 1 -i 63 -a 1 -x {6.0 2.0 0 ------- null}
- -t 0.116875 -s 6 -d 0 -p ack -e 40 -c 1 -i 63 -a 1 -x {6.0 2.0 0 ------- null}
h -t 0.116875 -s 6 -d 0 -p ack -e 40 -c 1 -i 63 -a 1 -x {6.0 2.0 -1 ------- null}
r -t 0.116875 -s 3 -d 2 -p ack -e 40 -c 2 -i 61 -a 2 -x {3.0 1.0 0 ------- null}
+ -t 0.116875 -s 2 -d 1 -p ack -e 40 -c 2 -i 61 -a 2 -x {3.0 1.0 0 ------- null}
- -t 0.116875 -s 2 -d 1 -p ack -e 40 -c 2 -i 61 -a 2 -x {3.0 1.0 0 ------- null}
h -t 0.116875 -s 2 -d 1 -p ack -e 40 -c 2 -i 61 -a 2 -x {3.0 1.0 -1 ------- null}
r -t 0.1225 -s 4 -d 5 -p ack -e 40 -c 0 -i 62 -a 0 -x {4.0 0.0 0 ------- null}
+ -t 0.1225 -s 5 -d 6 -p ack -e 40 -c 0 -i 62 -a 0 -x {4.0 0.0 0 ------- null}
- -t 0.1225 -s 5 -d 6 -p ack -e 40 -c 0 -i 62 -a 0 -x {4.0 0.0 0 ------- null}
h -t 0.1225 -s 5 -d 6 -p ack -e 40 -c 0 -i 62 -a 0 -x {4.0 0.0 -1 ------- null}
r -t 0.1225 -s 6 -d 0 -p ack -e 40 -c 1 -i 63 -a 1 -x {6.0 2.0 0 ------- null}
+ -t 0.1225 -s 0 -d 1 -p ack -e 40 -c 1 -i 63 -a 1 -x {6.0 2.0 0 ------- null}
- -t 0.1225 -s 0 -d 1 -p ack -e 40 -c 1 -i 63 -a 1 -x {6.0 2.0 0 ------- null}
h -t 0.1225 -s 0 -d 1 -p ack -e 40 -c 1 -i 63 -a 1 -x {6.0 2.0 -1 ------- null}
r -t 0.1225 -s 2 -d 1 -p ack -e 40 -c 2 -i 61 -a 2 -x {3.0 1.0 0 ------- null}
+ -t 0.1225 -s 1 -d 2 -p tcp -e 1040 -c 2 -i 64 -a 2 -x {1.0 3.0 1 ------- null}
- -t 0.1225 -s 1 -d 2 -p tcp -e 1040 -c 2 -i 64 -a 2 -x {1.0 3.0 1 ------- null}
h -t 0.1225 -s 1 -d 2 -p tcp -e 1040 -c 2 -i 64 -a 2 -x {1.0 3.0 -1 ------- null}
+ -t 0.1225 -s 1 -d 2 -p tcp -e 1040 -c 2 -i 65 -a 2 -x {1.0 3.0 2 ------- null}
r -t 0.128125 -s 5 -d 6 -p ack -e 40 -c 0 -i 62 -a 0 -x {4.0 0.0 0 ------- null}
+ -t 0.128125 -s 6 -d 0 -p ack -e 40 -c 0 -i 62 -a 0 -x {4.0 0.0 0 ------- null}
- -t 0.128125 -s 6 -d 0 -p ack -e 40 -c 0 -i 62 -a 0 -x {4.0 0.0 0 ------- null}
h -t 0.128125 -s 6 -d 0 -p ack -e 40 -c 0 -i 62 -a 0 -x {4.0 0.0 -1 ------- null}
r -t 0.128125 -s 0 -d 1 -p ack -e 40 -c 1 -i 63 -a 1 -x {6.0 2.0 0 ------- null}
+ -t 0.128125 -s 1 -d 2 -p ack -e 40 -c 1 -i 63 -a 1 -x {6.0 2.0 0 ------- null}
r -t 0.13375 -s 6 -d 0 -p ack -e 40 -c 0 -i 62 -a 0 -x {4.0 0.0 0 ------- null}
+ -t 0.13375 -s 0 -d 6 -p tcp -e 1040 -c 0 -i 66 -a 0 -x {0.0 4.0 1 ------- null}
- -t 0.13375 -s 0 -d 6 -p tcp -e 1040 -c 0 -i 66 -a 0 -x {0.0 4.0 1 ------- null}
h -t 0.13375 -s 0 -d 6 -p tcp -e 1040 -c 0 -i 66 -a 0 -x {0.0 4.0 -1 ------- null}
+ -t 0.13375 -s 0 -d 6 -p tcp -e 1040 -c 0 -i 67 -a 0 -x {0.0 4.0 2 ------- null}
- -t 0.13875 -s 1 -d 2 -p tcp -e 1040 -c 2 -i 65 -a 2 -x {1.0 3.0 2 ------- null}
h -t 0.13875 -s 1 -d 2 -p tcp -e 1040 -c 2 -i 65 -a 2 -x {1.0 3.0 -1 ------- null}
r -t 0.14375 -s 1 -d 2 -p tcp -e 1040 -c 2 -i 64 -a 2 -x {1.0 3.0 1 ------- null}
+ -t 0.14375 -s 2 -d 3 -p tcp -e 1040 -c 2 -i 64 -a 2 -x {1.0 3.0 1 ------- null}
- -t 0.14375 -s 2 -d 3 -p tcp -e 1040 -c 2 -i 64 -a 2 -x {1.0 3.0 1 ------- null}
h -t 0.14375 -s 2 -d 3 -p tcp -e 1040 -c 2 -i 64 -a 2 -x {1.0 3.0 -1 ------- null}
- -t 0.15 -s 0 -d 6 -p tcp -e 1040 -c 0 -i 67 -a 0 -x {0.0 4.0 2 ------- null}
h -t 0.15 -s 0 -d 6 -p tcp -e 1040 -c 0 -i 67 -a 0 -x {0.0 4.0 -1 ------- null}
r -t 0.155 -s 0 -d 6 -p tcp -e 1040 -c 0 -i 66 -a 0 -x {0.0 4.0 1 ------- null}
+ -t 0.155 -s 6 -d 5 -p tcp -e 1040 -c 0 -i 66 -a 0 -x {0.0 4.0 1 ------- null}
- -t 0.155 -s 6 -d 5 -p tcp -e 1040 -c 0 -i 66 -a 0 -x {0.0 4.0 1 ------- null}